
Host: ibcp24-083

Timers On : Mon Feb  9 12:22:13 2026
Timers Off: Tue Feb 10 11:59:39 2026

Wall Time:    85046.04 seconds

                                                       Time (seconds)
Module                                       User      System        Wall        Calls

--------------------------------------------------------------------------------------

**************************************************************************************

Host: ibcp24-083

Timers On : Thu Feb 12 16:08:24 2026
Timers Off: Thu Feb 12 16:30:13 2026

Wall Time:     1308.99 seconds

                                                       Time (seconds)
Module                                       User      System        Wall        Calls

--------------------------------------------------------------------------------------

**************************************************************************************

Host: ibcp24-083

Timers On : Thu Feb 12 16:30:21 2026
Timers Off: Fri Feb 13 12:11:04 2026

Wall Time:    70843.16 seconds

                                                       Time (seconds)
Module                                       User      System        Wall        Calls

--------------------------------------------------------------------------------------

**************************************************************************************

Host: ibcp24-083

Timers On : Fri Feb 13 14:26:35 2026
Timers Off: Fri Feb 13 14:33:30 2026

Wall Time:      415.22 seconds

                                                       Time (seconds)
Module                                       User      System        Wall        Calls

--------------------------------------------------------------------------------------

**************************************************************************************

Host: ibcp24-083

Timers On : Fri Feb 13 14:34:06 2026
Timers Off: Fri Feb 13 14:46:04 2026

Wall Time:      718.33 seconds

                                                       Time (seconds)
Module                                       User      System        Wall        Calls

--------------------------------------------------------------------------------------

**************************************************************************************

Host: ibcp24-083

Timers On : Fri Feb 13 14:51:57 2026
Timers Off: Fri Feb 13 14:52:57 2026

Wall Time:       59.29 seconds

                                                       Time (seconds)
Module                                       User      System        Wall        Calls

--------------------------------------------------------------------------------------

**************************************************************************************

Host: ibcp24-083

Timers On : Fri Feb 13 14:53:02 2026
Timers Off: Fri Feb 13 14:54:23 2026

Wall Time:       80.15 seconds

                                                       Time (seconds)
Module                                       User      System        Wall        Calls

--------------------------------------------------------------------------------------

**************************************************************************************

Host: ibcp24-083

Timers On : Fri Feb 13 14:54:28 2026
Timers Off: Fri Feb 13 14:55:51 2026

Wall Time:       83.92 seconds

                                                       Time (seconds)
Module                                       User      System        Wall        Calls

--------------------------------------------------------------------------------------

**************************************************************************************

Host: ibcp24-083

Timers On : Fri Feb 13 14:55:55 2026
Timers Off: Fri Feb 13 14:56:53 2026

Wall Time:       57.85 seconds

                                                       Time (seconds)
Module                                       User      System        Wall        Calls

--------------------------------------------------------------------------------------

**************************************************************************************

Host: ibcp24-083

Timers On : Fri Feb 13 14:56:57 2026
Timers Off: Fri Feb 13 14:58:54 2026

Wall Time:      116.85 seconds

                                                       Time (seconds)
Module                                       User      System        Wall        Calls

--------------------------------------------------------------------------------------

**************************************************************************************

Host: ibcp24-083

Timers On : Fri Feb 13 14:59:01 2026
Timers Off: Fri Feb 13 15:00:43 2026

Wall Time:      101.81 seconds

                                                       Time (seconds)
Module                                       User      System        Wall        Calls

--------------------------------------------------------------------------------------

**************************************************************************************

Host: ibcp24-083

Timers On : Fri Feb 13 15:00:48 2026
Timers Off: Fri Feb 13 15:05:08 2026

Wall Time:      259.52 seconds

                                                       Time (seconds)
Module                                       User      System        Wall        Calls

--------------------------------------------------------------------------------------

**************************************************************************************

Host: ibcp24-083

Timers On : Fri Feb 13 15:33:23 2026
Timers Off: Mon Feb 16 10:34:36 2026

Wall Time:   241272.47 seconds

                                                       Time (seconds)
Module                                       User      System        Wall        Calls

--------------------------------------------------------------------------------------

**************************************************************************************

Host: ibcp24-083

Timers On : Mon Feb 16 10:36:43 2026
Timers Off: Mon Feb 23 12:02:01 2026

Wall Time:   609917.62 seconds

                                                       Time (seconds)
Module                                       User      System        Wall        Calls

--------------------------------------------------------------------------------------

**************************************************************************************

Host: ibcp24-083

Timers On : Mon Feb 23 12:04:39 2026
Timers Off: Mon Feb 23 12:15:29 2026

Wall Time:      649.82 seconds

                                                       Time (seconds)
Module                                       User      System        Wall        Calls

--------------------------------------------------------------------------------------

**************************************************************************************

Host: ibcp24-083

Timers On : Mon Feb 23 14:01:02 2026
Timers Off: Mon Feb 23 14:02:53 2026

Wall Time:      110.87 seconds

                                                       Time (seconds)
Module                                       User      System        Wall        Calls

--------------------------------------------------------------------------------------

**************************************************************************************

Host: ibcp24-083

Timers On : Mon Feb 23 14:02:59 2026
Timers Off: Mon Feb 23 14:07:13 2026

Wall Time:      254.69 seconds

                                                       Time (seconds)
Module                                       User      System        Wall        Calls

--------------------------------------------------------------------------------------

**************************************************************************************

Host: ibcp24-083

Timers On : Mon Feb 23 14:07:19 2026
Timers Off: Mon Feb 23 14:09:46 2026

Wall Time:      147.12 seconds

                                                       Time (seconds)
Module                                       User      System        Wall        Calls

--------------------------------------------------------------------------------------

**************************************************************************************

Host: ibcp24-083

Timers On : Mon Feb 23 14:09:52 2026
Timers Off: Mon Feb 23 14:11:32 2026

Wall Time:       99.57 seconds

                                                       Time (seconds)
Module                                       User      System        Wall        Calls

--------------------------------------------------------------------------------------

**************************************************************************************

Host: ibcp24-083

Timers On : Mon Feb 23 14:11:37 2026
Timers Off: Mon Feb 23 14:11:59 2026

Wall Time:       21.72 seconds

                                                       Time (seconds)
Module                                       User      System        Wall        Calls

--------------------------------------------------------------------------------------

**************************************************************************************

Host: ibcp24-083

Timers On : Mon Feb 23 17:35:07 2026
Timers Off: Tue Feb 24 10:14:08 2026

Wall Time:    59941.74 seconds

                                                       Time (seconds)
Module                                       User      System        Wall        Calls

--------------------------------------------------------------------------------------

**************************************************************************************

Host: ibcp24-083

Timers On : Tue Feb 24 10:18:26 2026
Timers Off: Tue Feb 24 10:28:11 2026

Wall Time:      585.33 seconds

                                                       Time (seconds)
Module                                       User      System        Wall        Calls

--------------------------------------------------------------------------------------

**************************************************************************************

Host: ibcp24-083

Timers On : Tue Feb 24 10:30:37 2026
Timers Off: Tue Feb 24 10:42:30 2026

Wall Time:      712.53 seconds

                                                       Time (seconds)
Module                                       User      System        Wall        Calls

--------------------------------------------------------------------------------------

**************************************************************************************

Host: ibcp24-083

Timers On : Tue Feb 24 10:44:13 2026
Timers Off: Tue Feb 24 10:45:01 2026

Wall Time:       47.81 seconds

                                                       Time (seconds)
Module                                       User      System        Wall        Calls

--------------------------------------------------------------------------------------

**************************************************************************************

Host: ibcp24-083

Timers On : Tue Feb 24 10:45:05 2026
Timers Off: Tue Feb 24 10:46:03 2026

Wall Time:       58.15 seconds

                                                       Time (seconds)
Module                                       User      System        Wall        Calls

--------------------------------------------------------------------------------------

**************************************************************************************

Host: ibcp24-083

Timers On : Tue Feb 24 10:46:10 2026
Timers Off: Tue Feb 24 11:14:49 2026

Wall Time:     1719.66 seconds

                                                       Time (seconds)
Module                                       User      System        Wall        Calls

--------------------------------------------------------------------------------------

**************************************************************************************

Host: ibcp24-083

Timers On : Tue Feb 24 11:21:16 2026
Timers Off: Tue Feb 24 11:43:24 2026

Wall Time:     1327.76 seconds

                                                       Time (seconds)
Module                                       User      System        Wall        Calls

--------------------------------------------------------------------------------------

**************************************************************************************

Host: ibcp24-083

Timers On : Tue Feb 24 12:38:01 2026
Timers Off: Tue Feb 24 12:58:06 2026

Wall Time:     1204.81 seconds

                                                       Time (seconds)
Module                                       User      System        Wall        Calls

--------------------------------------------------------------------------------------

**************************************************************************************

Host: ibcp24-083

Timers On : Tue Feb 24 13:24:00 2026
Timers Off: Tue Feb 24 13:24:24 2026

Wall Time:       24.59 seconds

                                                       Time (seconds)
Module                                       User      System        Wall        Calls

--------------------------------------------------------------------------------------

**************************************************************************************

Host: ibcp24-083

Timers On : Tue Feb 24 13:24:28 2026
Timers Off: Tue Feb 24 13:35:49 2026

Wall Time:      680.72 seconds

                                                       Time (seconds)
Module                                       User      System        Wall        Calls

--------------------------------------------------------------------------------------

**************************************************************************************

Host: ibcp24-083

Timers On : Tue Feb 24 13:36:23 2026
Timers Off: Tue Feb 24 13:37:12 2026

Wall Time:       48.57 seconds

                                                       Time (seconds)
Module                                       User      System        Wall        Calls

--------------------------------------------------------------------------------------

**************************************************************************************

Host: ibcp24-083

Timers On : Tue Feb 24 13:37:20 2026
Timers Off: Tue Feb 24 13:38:23 2026

Wall Time:       62.52 seconds

                                                       Time (seconds)
Module                                       User      System        Wall        Calls

--------------------------------------------------------------------------------------

**************************************************************************************

Host: ibcp24-083

Timers On : Tue Feb 24 13:38:45 2026
Timers Off: Tue Feb 24 13:45:05 2026

Wall Time:      379.86 seconds

                                                       Time (seconds)
Module                                       User      System        Wall        Calls

--------------------------------------------------------------------------------------

**************************************************************************************

Host: ibcp24-083

Timers On : Tue Feb 24 13:48:30 2026
Timers Off: Tue Feb 24 13:50:14 2026

Wall Time:      104.39 seconds

                                                       Time (seconds)
Module                                       User      System        Wall        Calls

--------------------------------------------------------------------------------------

**************************************************************************************

Host: ibcp24-083

Timers On : Tue Feb 24 13:50:30 2026
Timers Off: Tue Feb 24 14:03:19 2026

Wall Time:      768.53 seconds

                                                       Time (seconds)
Module                                       User      System        Wall        Calls

--------------------------------------------------------------------------------------

**************************************************************************************

Host: ibcp24-083

Timers On : Tue Feb 24 14:04:21 2026
Timers Off: Tue Feb 24 14:04:35 2026

Wall Time:       13.66 seconds

                                                       Time (seconds)
Module                                       User      System        Wall        Calls

--------------------------------------------------------------------------------------

**************************************************************************************

Host: ibcp24-083

Timers On : Tue Feb 24 14:04:43 2026
Timers Off: Tue Feb 24 14:05:16 2026

Wall Time:       33.36 seconds

                                                       Time (seconds)
Module                                       User      System        Wall        Calls

--------------------------------------------------------------------------------------

**************************************************************************************

Host: ibcp24-083

Timers On : Tue Feb 24 14:05:19 2026
Timers Off: Tue Feb 24 14:07:04 2026

Wall Time:      105.05 seconds

                                                       Time (seconds)
Module                                       User      System        Wall        Calls

--------------------------------------------------------------------------------------

**************************************************************************************
