
Host: ibcp24-083

Timers On : Mon Feb  9 12:22:13 2026
Timers Off: Tue Feb 10 11:59:39 2026

Wall Time:    85046.04 seconds

                                                       Time (seconds)
Module                                       User      System        Wall        Calls

--------------------------------------------------------------------------------------

**************************************************************************************

Host: ibcp24-083

Timers On : Thu Feb 12 16:08:24 2026
Timers Off: Thu Feb 12 16:30:13 2026

Wall Time:     1308.99 seconds

                                                       Time (seconds)
Module                                       User      System        Wall        Calls

--------------------------------------------------------------------------------------

**************************************************************************************

Host: ibcp24-083

Timers On : Thu Feb 12 16:30:21 2026
Timers Off: Fri Feb 13 12:11:04 2026

Wall Time:    70843.16 seconds

                                                       Time (seconds)
Module                                       User      System        Wall        Calls

--------------------------------------------------------------------------------------

**************************************************************************************

Host: ibcp24-083

Timers On : Fri Feb 13 14:26:35 2026
Timers Off: Fri Feb 13 14:33:30 2026

Wall Time:      415.22 seconds

                                                       Time (seconds)
Module                                       User      System        Wall        Calls

--------------------------------------------------------------------------------------

**************************************************************************************

Host: ibcp24-083

Timers On : Fri Feb 13 14:34:06 2026
Timers Off: Fri Feb 13 14:46:04 2026

Wall Time:      718.33 seconds

                                                       Time (seconds)
Module                                       User      System        Wall        Calls

--------------------------------------------------------------------------------------

**************************************************************************************

Host: ibcp24-083

Timers On : Fri Feb 13 14:51:57 2026
Timers Off: Fri Feb 13 14:52:57 2026

Wall Time:       59.29 seconds

                                                       Time (seconds)
Module                                       User      System        Wall        Calls

--------------------------------------------------------------------------------------

**************************************************************************************

Host: ibcp24-083

Timers On : Fri Feb 13 14:53:02 2026
Timers Off: Fri Feb 13 14:54:23 2026

Wall Time:       80.15 seconds

                                                       Time (seconds)
Module                                       User      System        Wall        Calls

--------------------------------------------------------------------------------------

**************************************************************************************

Host: ibcp24-083

Timers On : Fri Feb 13 14:54:28 2026
Timers Off: Fri Feb 13 14:55:51 2026

Wall Time:       83.92 seconds

                                                       Time (seconds)
Module                                       User      System        Wall        Calls

--------------------------------------------------------------------------------------

**************************************************************************************

Host: ibcp24-083

Timers On : Fri Feb 13 14:55:55 2026
Timers Off: Fri Feb 13 14:56:53 2026

Wall Time:       57.85 seconds

                                                       Time (seconds)
Module                                       User      System        Wall        Calls

--------------------------------------------------------------------------------------

**************************************************************************************

Host: ibcp24-083

Timers On : Fri Feb 13 14:56:57 2026
Timers Off: Fri Feb 13 14:58:54 2026

Wall Time:      116.85 seconds

                                                       Time (seconds)
Module                                       User      System        Wall        Calls

--------------------------------------------------------------------------------------

**************************************************************************************

Host: ibcp24-083

Timers On : Fri Feb 13 14:59:01 2026
Timers Off: Fri Feb 13 15:00:43 2026

Wall Time:      101.81 seconds

                                                       Time (seconds)
Module                                       User      System        Wall        Calls

--------------------------------------------------------------------------------------

**************************************************************************************
