
Host: ibcp24-083

Timers On : Mon Feb  9 12:22:13 2026
Timers Off: Tue Feb 10 11:59:39 2026

Wall Time:    85046.04 seconds

                                                       Time (seconds)
Module                                       User      System        Wall        Calls

--------------------------------------------------------------------------------------

**************************************************************************************
