
Host: ibcp24-083

Timers On : Mon Feb  9 12:22:13 2026
Timers Off: Tue Feb 10 11:59:39 2026

Wall Time:    85046.04 seconds

                                                       Time (seconds)
Module                                       User      System        Wall        Calls

--------------------------------------------------------------------------------------

**************************************************************************************

Host: ibcp24-083

Timers On : Thu Feb 12 16:08:24 2026
Timers Off: Thu Feb 12 16:30:13 2026

Wall Time:     1308.99 seconds

                                                       Time (seconds)
Module                                       User      System        Wall        Calls

--------------------------------------------------------------------------------------

**************************************************************************************

Host: ibcp24-083

Timers On : Thu Feb 12 16:30:21 2026
Timers Off: Fri Feb 13 12:11:04 2026

Wall Time:    70843.16 seconds

                                                       Time (seconds)
Module                                       User      System        Wall        Calls

--------------------------------------------------------------------------------------

**************************************************************************************

Host: ibcp24-083

Timers On : Fri Feb 13 14:26:35 2026
Timers Off: Fri Feb 13 14:33:30 2026

Wall Time:      415.22 seconds

                                                       Time (seconds)
Module                                       User      System        Wall        Calls

--------------------------------------------------------------------------------------

**************************************************************************************

Host: ibcp24-083

Timers On : Fri Feb 13 14:34:06 2026
Timers Off: Fri Feb 13 14:46:04 2026

Wall Time:      718.33 seconds

                                                       Time (seconds)
Module                                       User      System        Wall        Calls

--------------------------------------------------------------------------------------

**************************************************************************************

Host: ibcp24-083

Timers On : Fri Feb 13 14:51:57 2026
Timers Off: Fri Feb 13 14:52:57 2026

Wall Time:       59.29 seconds

                                                       Time (seconds)
Module                                       User      System        Wall        Calls

--------------------------------------------------------------------------------------

**************************************************************************************

Host: ibcp24-083

Timers On : Fri Feb 13 14:53:02 2026
Timers Off: Fri Feb 13 14:54:23 2026

Wall Time:       80.15 seconds

                                                       Time (seconds)
Module                                       User      System        Wall        Calls

--------------------------------------------------------------------------------------

**************************************************************************************

Host: ibcp24-083

Timers On : Fri Feb 13 14:54:28 2026
Timers Off: Fri Feb 13 14:55:51 2026

Wall Time:       83.92 seconds

                                                       Time (seconds)
Module                                       User      System        Wall        Calls

--------------------------------------------------------------------------------------

**************************************************************************************

Host: ibcp24-083

Timers On : Fri Feb 13 14:55:55 2026
Timers Off: Fri Feb 13 14:56:53 2026

Wall Time:       57.85 seconds

                                                       Time (seconds)
Module                                       User      System        Wall        Calls

--------------------------------------------------------------------------------------

**************************************************************************************

Host: ibcp24-083

Timers On : Fri Feb 13 14:56:57 2026
Timers Off: Fri Feb 13 14:58:54 2026

Wall Time:      116.85 seconds

                                                       Time (seconds)
Module                                       User      System        Wall        Calls

--------------------------------------------------------------------------------------

**************************************************************************************

Host: ibcp24-083

Timers On : Fri Feb 13 14:59:01 2026
Timers Off: Fri Feb 13 15:00:43 2026

Wall Time:      101.81 seconds

                                                       Time (seconds)
Module                                       User      System        Wall        Calls

--------------------------------------------------------------------------------------

**************************************************************************************

Host: ibcp24-083

Timers On : Fri Feb 13 15:00:48 2026
Timers Off: Fri Feb 13 15:05:08 2026

Wall Time:      259.52 seconds

                                                       Time (seconds)
Module                                       User      System        Wall        Calls

--------------------------------------------------------------------------------------

**************************************************************************************

Host: ibcp24-083

Timers On : Fri Feb 13 15:33:23 2026
Timers Off: Mon Feb 16 10:34:36 2026

Wall Time:   241272.47 seconds

                                                       Time (seconds)
Module                                       User      System        Wall        Calls

--------------------------------------------------------------------------------------

**************************************************************************************

Host: ibcp24-083

Timers On : Mon Feb 16 10:36:43 2026
Timers Off: Mon Feb 23 12:02:01 2026

Wall Time:   609917.62 seconds

                                                       Time (seconds)
Module                                       User      System        Wall        Calls

--------------------------------------------------------------------------------------

**************************************************************************************

Host: ibcp24-083

Timers On : Mon Feb 23 12:04:39 2026
Timers Off: Mon Feb 23 12:15:29 2026

Wall Time:      649.82 seconds

                                                       Time (seconds)
Module                                       User      System        Wall        Calls

--------------------------------------------------------------------------------------

**************************************************************************************

Host: ibcp24-083

Timers On : Mon Feb 23 14:01:02 2026
Timers Off: Mon Feb 23 14:02:53 2026

Wall Time:      110.87 seconds

                                                       Time (seconds)
Module                                       User      System        Wall        Calls

--------------------------------------------------------------------------------------

**************************************************************************************

Host: ibcp24-083

Timers On : Mon Feb 23 14:02:59 2026
Timers Off: Mon Feb 23 14:07:13 2026

Wall Time:      254.69 seconds

                                                       Time (seconds)
Module                                       User      System        Wall        Calls

--------------------------------------------------------------------------------------

**************************************************************************************

Host: ibcp24-083

Timers On : Mon Feb 23 14:07:19 2026
Timers Off: Mon Feb 23 14:09:46 2026

Wall Time:      147.12 seconds

                                                       Time (seconds)
Module                                       User      System        Wall        Calls

--------------------------------------------------------------------------------------

**************************************************************************************

Host: ibcp24-083

Timers On : Mon Feb 23 14:09:52 2026
Timers Off: Mon Feb 23 14:11:32 2026

Wall Time:       99.57 seconds

                                                       Time (seconds)
Module                                       User      System        Wall        Calls

--------------------------------------------------------------------------------------

**************************************************************************************

Host: ibcp24-083

Timers On : Mon Feb 23 14:11:37 2026
Timers Off: Mon Feb 23 14:11:59 2026

Wall Time:       21.72 seconds

                                                       Time (seconds)
Module                                       User      System        Wall        Calls

--------------------------------------------------------------------------------------

**************************************************************************************

Host: ibcp24-083

Timers On : Mon Feb 23 17:35:07 2026
Timers Off: Tue Feb 24 10:14:08 2026

Wall Time:    59941.74 seconds

                                                       Time (seconds)
Module                                       User      System        Wall        Calls

--------------------------------------------------------------------------------------

**************************************************************************************

Host: ibcp24-083

Timers On : Tue Feb 24 10:18:26 2026
Timers Off: Tue Feb 24 10:28:11 2026

Wall Time:      585.33 seconds

                                                       Time (seconds)
Module                                       User      System        Wall        Calls

--------------------------------------------------------------------------------------

**************************************************************************************

Host: ibcp24-083

Timers On : Tue Feb 24 10:30:37 2026
Timers Off: Tue Feb 24 10:42:30 2026

Wall Time:      712.53 seconds

                                                       Time (seconds)
Module                                       User      System        Wall        Calls

--------------------------------------------------------------------------------------

**************************************************************************************

Host: ibcp24-083

Timers On : Tue Feb 24 10:44:13 2026
Timers Off: Tue Feb 24 10:45:01 2026

Wall Time:       47.81 seconds

                                                       Time (seconds)
Module                                       User      System        Wall        Calls

--------------------------------------------------------------------------------------

**************************************************************************************

Host: ibcp24-083

Timers On : Tue Feb 24 10:45:05 2026
Timers Off: Tue Feb 24 10:46:03 2026

Wall Time:       58.15 seconds

                                                       Time (seconds)
Module                                       User      System        Wall        Calls

--------------------------------------------------------------------------------------

**************************************************************************************

Host: ibcp24-083

Timers On : Tue Feb 24 10:46:10 2026
Timers Off: Tue Feb 24 11:14:49 2026

Wall Time:     1719.66 seconds

                                                       Time (seconds)
Module                                       User      System        Wall        Calls

--------------------------------------------------------------------------------------

**************************************************************************************

Host: ibcp24-083

Timers On : Tue Feb 24 11:21:16 2026
Timers Off: Tue Feb 24 11:43:24 2026

Wall Time:     1327.76 seconds

                                                       Time (seconds)
Module                                       User      System        Wall        Calls

--------------------------------------------------------------------------------------

**************************************************************************************

Host: ibcp24-083

Timers On : Tue Feb 24 12:38:01 2026
Timers Off: Tue Feb 24 12:58:06 2026

Wall Time:     1204.81 seconds

                                                       Time (seconds)
Module                                       User      System        Wall        Calls

--------------------------------------------------------------------------------------

**************************************************************************************

Host: ibcp24-083

Timers On : Tue Feb 24 13:24:00 2026
Timers Off: Tue Feb 24 13:24:24 2026

Wall Time:       24.59 seconds

                                                       Time (seconds)
Module                                       User      System        Wall        Calls

--------------------------------------------------------------------------------------

**************************************************************************************

Host: ibcp24-083

Timers On : Tue Feb 24 13:24:28 2026
Timers Off: Tue Feb 24 13:35:49 2026

Wall Time:      680.72 seconds

                                                       Time (seconds)
Module                                       User      System        Wall        Calls

--------------------------------------------------------------------------------------

**************************************************************************************

Host: ibcp24-083

Timers On : Tue Feb 24 13:36:23 2026
Timers Off: Tue Feb 24 13:37:12 2026

Wall Time:       48.57 seconds

                                                       Time (seconds)
Module                                       User      System        Wall        Calls

--------------------------------------------------------------------------------------

**************************************************************************************

Host: ibcp24-083

Timers On : Tue Feb 24 13:37:20 2026
Timers Off: Tue Feb 24 13:38:23 2026

Wall Time:       62.52 seconds

                                                       Time (seconds)
Module                                       User      System        Wall        Calls

--------------------------------------------------------------------------------------

**************************************************************************************

Host: ibcp24-083

Timers On : Tue Feb 24 13:38:45 2026
Timers Off: Tue Feb 24 13:45:05 2026

Wall Time:      379.86 seconds

                                                       Time (seconds)
Module                                       User      System        Wall        Calls

--------------------------------------------------------------------------------------

**************************************************************************************

Host: ibcp24-083

Timers On : Tue Feb 24 13:48:30 2026
Timers Off: Tue Feb 24 13:50:14 2026

Wall Time:      104.39 seconds

                                                       Time (seconds)
Module                                       User      System        Wall        Calls

--------------------------------------------------------------------------------------

**************************************************************************************

Host: ibcp24-083

Timers On : Tue Feb 24 13:50:30 2026
Timers Off: Tue Feb 24 14:03:19 2026

Wall Time:      768.53 seconds

                                                       Time (seconds)
Module                                       User      System        Wall        Calls

--------------------------------------------------------------------------------------

**************************************************************************************

Host: ibcp24-083

Timers On : Tue Feb 24 14:04:21 2026
Timers Off: Tue Feb 24 14:04:35 2026

Wall Time:       13.66 seconds

                                                       Time (seconds)
Module                                       User      System        Wall        Calls

--------------------------------------------------------------------------------------

**************************************************************************************

Host: ibcp24-083

Timers On : Tue Feb 24 14:04:43 2026
Timers Off: Tue Feb 24 14:05:16 2026

Wall Time:       33.36 seconds

                                                       Time (seconds)
Module                                       User      System        Wall        Calls

--------------------------------------------------------------------------------------

**************************************************************************************

Host: ibcp24-083

Timers On : Tue Feb 24 14:05:19 2026
Timers Off: Tue Feb 24 14:07:04 2026

Wall Time:      105.05 seconds

                                                       Time (seconds)
Module                                       User      System        Wall        Calls

--------------------------------------------------------------------------------------

**************************************************************************************

Host: ibcp24-083

Timers On : Tue Mar 24 10:35:29 2026
Timers Off: Tue Mar 24 10:51:02 2026

Wall Time:      932.75 seconds

                                                       Time (seconds)
Module                                       User      System        Wall        Calls

--------------------------------------------------------------------------------------

**************************************************************************************

Host: ibcp24-083

Timers On : Tue Mar 24 10:51:14 2026
Timers Off: Tue Mar 24 11:06:35 2026

Wall Time:      920.58 seconds

                                                       Time (seconds)
Module                                       User      System        Wall        Calls

--------------------------------------------------------------------------------------

**************************************************************************************

Host: ibcp24-083

Timers On : Tue Mar 24 11:13:19 2026
Timers Off: Mon Apr 13 10:06:24 2026

Wall Time:  1720385.26 seconds

                                                       Time (seconds)
Module                                       User      System        Wall        Calls

--------------------------------------------------------------------------------------

**************************************************************************************

Host: ibcp24-083

Timers On : Mon Apr 13 10:11:46 2026
Timers Off: Mon Apr 13 10:55:48 2026

Wall Time:     2641.92 seconds

                                                       Time (seconds)
Module                                       User      System        Wall        Calls

--------------------------------------------------------------------------------------

**************************************************************************************

Host: ibcp24-083

Timers On : Mon Apr 13 10:57:05 2026
Timers Off: Mon Apr 13 10:57:32 2026

Wall Time:       27.35 seconds

                                                       Time (seconds)
Module                                       User      System        Wall        Calls

--------------------------------------------------------------------------------------

**************************************************************************************

Host: ibcp24-083

Timers On : Mon Apr 13 10:57:50 2026
Timers Off: Mon Apr 13 11:17:50 2026

Wall Time:     1199.70 seconds

                                                       Time (seconds)
Module                                       User      System        Wall        Calls

--------------------------------------------------------------------------------------

**************************************************************************************

Host: ibcp24-083

Timers On : Mon Apr 13 11:23:40 2026
Timers Off: Mon Apr 13 11:26:48 2026

Wall Time:      187.60 seconds

                                                       Time (seconds)
Module                                       User      System        Wall        Calls

--------------------------------------------------------------------------------------

**************************************************************************************

Host: ibcp24-083

Timers On : Mon Apr 13 11:27:38 2026
Timers Off: Mon Apr 13 11:28:13 2026

Wall Time:       34.96 seconds

                                                       Time (seconds)
Module                                       User      System        Wall        Calls

--------------------------------------------------------------------------------------

**************************************************************************************

Host: ibcp24-083

Timers On : Mon Apr 13 11:28:19 2026
Timers Off: Mon Apr 13 16:11:56 2026

Wall Time:    17017.84 seconds

                                                       Time (seconds)
Module                                       User      System        Wall        Calls

--------------------------------------------------------------------------------------

**************************************************************************************

Host: ibcp24-083

Timers On : Mon Apr 13 16:24:17 2026
Timers Off: Mon Apr 13 16:28:27 2026

Wall Time:      249.21 seconds

                                                       Time (seconds)
Module                                       User      System        Wall        Calls

--------------------------------------------------------------------------------------

**************************************************************************************

Host: ibcp24-083

Timers On : Mon Apr 13 16:28:36 2026
Timers Off: Mon Apr 13 16:32:03 2026

Wall Time:      207.00 seconds

                                                       Time (seconds)
Module                                       User      System        Wall        Calls

--------------------------------------------------------------------------------------

**************************************************************************************

Host: ibcp24-083

Timers On : Mon Apr 13 16:32:36 2026
Timers Off: Mon Apr 13 16:33:55 2026

Wall Time:       78.74 seconds

                                                       Time (seconds)
Module                                       User      System        Wall        Calls

--------------------------------------------------------------------------------------

**************************************************************************************

Host: ibcp24-083

Timers On : Mon Apr 13 16:33:59 2026
Timers Off: Mon Apr 13 16:39:47 2026

Wall Time:      347.66 seconds

                                                       Time (seconds)
Module                                       User      System        Wall        Calls

--------------------------------------------------------------------------------------

**************************************************************************************

Host: ibcp24-083

Timers On : Mon Apr 13 16:39:51 2026
Timers Off: Mon Apr 13 16:41:41 2026

Wall Time:      110.47 seconds

                                                       Time (seconds)
Module                                       User      System        Wall        Calls

--------------------------------------------------------------------------------------

**************************************************************************************

Host: ibcp24-083

Timers On : Mon Apr 13 16:41:53 2026
Timers Off: Mon Apr 13 16:46:26 2026

Wall Time:      272.21 seconds

                                                       Time (seconds)
Module                                       User      System        Wall        Calls

--------------------------------------------------------------------------------------

**************************************************************************************

Host: ibcp24-083

Timers On : Mon Apr 13 16:46:56 2026
Timers Off: Mon Apr 13 16:47:58 2026

Wall Time:       62.13 seconds

                                                       Time (seconds)
Module                                       User      System        Wall        Calls

--------------------------------------------------------------------------------------

**************************************************************************************

Host: ibcp24-083

Timers On : Mon Apr 13 16:48:25 2026
Timers Off: Mon Apr 13 16:51:35 2026

Wall Time:      189.67 seconds

                                                       Time (seconds)
Module                                       User      System        Wall        Calls

--------------------------------------------------------------------------------------

**************************************************************************************

Host: ibcp24-083

Timers On : Mon Apr 13 16:51:51 2026
Timers Off: Mon Apr 13 16:55:47 2026

Wall Time:      235.27 seconds

                                                       Time (seconds)
Module                                       User      System        Wall        Calls

--------------------------------------------------------------------------------------

**************************************************************************************

Host: ibcp24-083

Timers On : Mon Apr 13 16:55:54 2026
Timers Off: Mon Apr 13 17:03:29 2026

Wall Time:      455.64 seconds

                                                       Time (seconds)
Module                                       User      System        Wall        Calls

--------------------------------------------------------------------------------------

**************************************************************************************

Host: ibcp24-083

Timers On : Mon Apr 13 17:08:42 2026
Timers Off: Mon Apr 13 17:13:26 2026

Wall Time:      284.51 seconds

                                                       Time (seconds)
Module                                       User      System        Wall        Calls

--------------------------------------------------------------------------------------

**************************************************************************************

Host: ibcp24-083

Timers On : Mon Apr 13 17:15:22 2026
Timers Off: Mon Apr 13 17:18:43 2026

Wall Time:      201.49 seconds

                                                       Time (seconds)
Module                                       User      System        Wall        Calls

--------------------------------------------------------------------------------------

**************************************************************************************

Host: ibcp24-083

Timers On : Mon Apr 13 17:18:48 2026
Timers Off: Mon Apr 13 17:23:00 2026

Wall Time:      252.44 seconds

                                                       Time (seconds)
Module                                       User      System        Wall        Calls

--------------------------------------------------------------------------------------

**************************************************************************************

Host: ibcp24-083

Timers On : Mon Apr 13 17:25:55 2026
Timers Off: Mon Apr 13 17:26:32 2026

Wall Time:       37.41 seconds

                                                       Time (seconds)
Module                                       User      System        Wall        Calls

--------------------------------------------------------------------------------------

**************************************************************************************

Host: ibcp24-083

Timers On : Mon Apr 13 17:28:01 2026
Timers Off: Mon Apr 13 17:35:36 2026

Wall Time:      454.79 seconds

                                                       Time (seconds)
Module                                       User      System        Wall        Calls

--------------------------------------------------------------------------------------

**************************************************************************************

Host: ibcp24-083

Timers On : Mon Apr 13 17:35:42 2026
Timers Off: Mon Apr 13 17:38:58 2026

Wall Time:      196.33 seconds

                                                       Time (seconds)
Module                                       User      System        Wall        Calls

--------------------------------------------------------------------------------------

**************************************************************************************

Host: ibcp24-083

Timers On : Mon Apr 13 17:39:21 2026
Timers Off: Mon Apr 13 17:43:13 2026

Wall Time:      232.00 seconds

                                                       Time (seconds)
Module                                       User      System        Wall        Calls

--------------------------------------------------------------------------------------

**************************************************************************************

Host: ibcp24-083

Timers On : Mon Apr 13 17:43:17 2026
Timers Off: Mon Apr 13 17:49:28 2026

Wall Time:      370.98 seconds

                                                       Time (seconds)
Module                                       User      System        Wall        Calls

--------------------------------------------------------------------------------------

**************************************************************************************

Host: ibcp24-083

Timers On : Mon Apr 13 17:49:33 2026
Timers Off: Mon Apr 13 17:50:28 2026

Wall Time:       55.79 seconds

                                                       Time (seconds)
Module                                       User      System        Wall        Calls

--------------------------------------------------------------------------------------

**************************************************************************************

Host: ibcp24-083

Timers On : Mon Apr 13 17:50:32 2026
Timers Off: Tue Apr 14 11:21:35 2026

Wall Time:    63062.89 seconds

                                                       Time (seconds)
Module                                       User      System        Wall        Calls

--------------------------------------------------------------------------------------

**************************************************************************************

Host: ibcp24-083

Timers On : Tue Apr 14 11:23:19 2026
Timers Off: Tue Apr 14 11:27:46 2026

Wall Time:      267.26 seconds

                                                       Time (seconds)
Module                                       User      System        Wall        Calls

--------------------------------------------------------------------------------------

**************************************************************************************

Host: ibcp24-083

Timers On : Tue Apr 14 11:28:06 2026
Timers Off: Tue Apr 14 11:44:28 2026

Wall Time:      982.19 seconds

                                                       Time (seconds)
Module                                       User      System        Wall        Calls

--------------------------------------------------------------------------------------

**************************************************************************************

Host: ibcp24-083

Timers On : Tue Apr 14 11:47:39 2026
Timers Off: Tue Apr 14 11:56:32 2026

Wall Time:      533.22 seconds

                                                       Time (seconds)
Module                                       User      System        Wall        Calls

--------------------------------------------------------------------------------------

**************************************************************************************

Host: ibcp24-083

Timers On : Tue Apr 14 11:56:53 2026
Timers Off: Tue Apr 14 11:57:51 2026

Wall Time:       58.08 seconds

                                                       Time (seconds)
Module                                       User      System        Wall        Calls

--------------------------------------------------------------------------------------

**************************************************************************************

Host: ibcp24-083

Timers On : Tue Apr 14 11:58:08 2026
Timers Off: Tue Apr 14 15:37:46 2026

Wall Time:    13178.22 seconds

                                                       Time (seconds)
Module                                       User      System        Wall        Calls

--------------------------------------------------------------------------------------

**************************************************************************************

Host: ibcp24-083

Timers On : Tue Apr 14 15:39:13 2026
Timers Off: Tue Apr 14 15:40:14 2026

Wall Time:       61.03 seconds

                                                       Time (seconds)
Module                                       User      System        Wall        Calls

--------------------------------------------------------------------------------------

**************************************************************************************

Host: ibcp24-083

Timers On : Tue Apr 14 15:40:21 2026
Timers Off: Tue Apr 14 15:41:31 2026

Wall Time:       69.95 seconds

                                                       Time (seconds)
Module                                       User      System        Wall        Calls

--------------------------------------------------------------------------------------

**************************************************************************************

Host: ibcp24-083

Timers On : Tue Apr 14 15:41:35 2026
Timers Off: Tue Apr 14 16:02:08 2026

Wall Time:     1233.06 seconds

                                                       Time (seconds)
Module                                       User      System        Wall        Calls

--------------------------------------------------------------------------------------

**************************************************************************************

Host: ibcp24-083

Timers On : Tue Apr 14 16:36:45 2026
Timers Off: Tue Apr 14 16:39:04 2026

Wall Time:      138.95 seconds

                                                       Time (seconds)
Module                                       User      System        Wall        Calls

--------------------------------------------------------------------------------------

**************************************************************************************

Host: ibcp24-083

Timers On : Tue Apr 14 16:39:38 2026
Timers Off: Tue Apr 14 16:53:34 2026

Wall Time:      836.02 seconds

                                                       Time (seconds)
Module                                       User      System        Wall        Calls

--------------------------------------------------------------------------------------

**************************************************************************************

Host: ibcp24-083

Timers On : Tue Apr 14 16:57:44 2026
Timers Off: Tue Apr 14 17:09:52 2026

Wall Time:      727.94 seconds

                                                       Time (seconds)
Module                                       User      System        Wall        Calls

--------------------------------------------------------------------------------------

**************************************************************************************
